<preamble>
<Code_and_file_information>
              Git Branch: develop; tag, hash: v1.3-112-gb89ccfbc
  Date generated        : 2024/11/18 at 17:07
</Code_and_file_information>
<Conquest_pseudopotential_info>
  Hamann code version   : v3.3.1
  Hamann input file name: H.in (appended at end of file)
  Core radii (bohr)     : l=0 1.000 l=1 0.700
  1 valence shells      : 1s
  XC functional code    :  000101
  Pseudopotential type  : ONCVPSP
  XC description        : GGA PBE96
</Conquest_pseudopotential_info>
<Conquest_basis_info>
H basis set with GGA PBE96 functional
n = 1, l = 0, 2 zetas
   Radii:   6.73  3.14
n = 3, l = 1, 1 zetas, perturbative polarisation shell
   Radii:   6.73
</Conquest_basis_info>
<pseudopotential_header>
 H  pb nrl nc  
</pseudopotential_header>
</preamble>
H                     # Element symbol
H                     # Label
  1.00                    # Atomic number
      1.0000000000                    # Valence charge
      1.0100000000                    # Mass
      0.0000000000                    # Self energy
   1   3                    # Lmax for basis, no of orbitals
   1   3                    # Lmax for projectors, no of proj
# PAOs:_______________
  0  1  1  0  1.000000  #orbital l, n, z, is_polarized, population
 673   0.0100108094935117   6.7272639796398339
    0.00000000000    1.56155243927
    0.01001080949    1.56134070284
    0.02002161899    1.56070574813
    0.03003242848    1.55964885058
    0.04004323797    1.55817208410
    0.05005404747    1.55627832243
    0.06006485696    1.55397122574
    0.07007566645    1.55125521739
    0.08008647595    1.54813545528
    0.09009728544    1.54461779874
    0.10010809494    1.54070877148
    0.11011890443    1.53641552108
    0.12012971392    1.53174577552
    0.13014052342    1.52670779733
    0.14015133291    1.52131033591
    0.15016214240    1.51556257860
    0.16017295190    1.50947410109
    0.17018376139    1.50305481772
    0.18019457088    1.49631493226
    0.19020538038    1.48926488971
    0.20021618987    1.48191532958
    0.21022699936    1.47427704125
    0.22023780886    1.46636092164
    0.23024861835    1.45817793578
    0.24025942784    1.44973908044
    0.25027023734    1.44105535113
    0.26028104683    1.43213771273
    0.27029185632    1.42299707375
    0.28030266582    1.41364426441
    0.29031347531    1.40409001844
    0.30032428481    1.39434495862
    0.31033509430    1.38441958583
    0.32034590379    1.37432427155
    0.33035671329    1.36406925340
    0.34036752278    1.35366463354
    0.35037833227    1.34312037965
    0.36038914177    1.33244632792
    0.37039995126    1.32165218784
    0.38041076075    1.31074754827
    0.39042157025    1.29974188439
    0.40043237974    1.28864456508
    0.41044318923    1.27746486027
    0.42045399873    1.26621194795
    0.43046480822    1.25489492023
    0.44047561771    1.24352278834
    0.45048642721    1.23210448598
    0.46049723670    1.22064887090
    0.47050804620    1.20916472442
    0.48051885569    1.19766074854
    0.49052966518    1.18614556082
    0.50054047468    1.17462768654
    0.51055128417    1.16311554844
    0.52056209366    1.15161745392
    0.53057290316    1.14014157977
    0.54058371265    1.12869595469
    0.55059452214    1.11728843966
    0.56060533164    1.10592670649
    0.57061614113    1.09461821492
    0.58062695062    1.08337018840
    0.59063776012    1.07218958916
    0.60064856961    1.06108309277
    0.61065937910    1.05005706277
    0.62067018860    1.03911752576
    0.63068099809    1.02827014718
    0.64069180758    1.01752020869
    0.65070261708    1.00687258704
    0.66071342657    0.99633173524
    0.67072423607    0.98590166613
    0.68073504556    0.97558593897
    0.69074585505    0.96538764906
    0.70075666455    0.95530942092
    0.71076747404    0.94535340509
    0.72077828353    0.93552127872
    0.73078909303    0.92581425012
    0.74079990252    0.91623306723
    0.75081071201    0.90677803005
    0.76082152151    0.89744900694
    0.77083233100    0.88824545454
    0.78084314049    0.87916644131
    0.79085394999    0.87021067430
    0.80086475948    0.86137652880
    0.81087556897    0.85266208067
    0.82088637847    0.84406514084
    0.83089718796    0.83558329159
    0.84090799745    0.82721392410
    0.85091880695    0.81895427692
    0.86092961644    0.81080147467
    0.87094042594    0.80275256672
    0.88095123543    0.79480456505
    0.89096204492    0.78695448110
    0.90097285442    0.77919936093
    0.91098366391    0.77153631839
    0.92099447340    0.76396256567
    0.93100528290    0.75647544121
    0.94101609239    0.74907243422
    0.95102690188    0.74175120587
    0.96103771138    0.73450960669
    0.97104852087    0.72734569015
    0.98105933036    0.72025772222
    0.99107013986    0.71324418676
    1.00108094935    0.70630378700
    1.01109175884    0.69943544499
    1.02110256834    0.69263827456
    1.03111337783    0.68591148121
    1.04112418733    0.67925428455
    1.05113499682    0.67266591066
    1.06114580631    0.66614559626
    1.07115661581    0.65969258660
    1.08116742530    0.65330613568
    1.09117823479    0.64698550619
    1.10118904429    0.64072996939
    1.11119985378    0.63453880504
    1.12121066327    0.62841130133
    1.13122147277    0.62234675477
    1.14123228226    0.61634447012
    1.15124309175    0.61040376027
    1.16125390125    0.60452394621
    1.17126471074    0.59870435689
    1.18127552023    0.59294432914
    1.19128632973    0.58724320761
    1.20129713922    0.58160034467
    1.21130794871    0.57601510031
    1.22131875821    0.57048684208
    1.23132956770    0.56501494498
    1.24134037720    0.55959879139
    1.25135118669    0.55423777098
    1.26136199618    0.54893128061
    1.27137280568    0.54367872430
    1.28138361517    0.53847951308
    1.29139442466    0.53333306495
    1.30140523416    0.52823880477
    1.31141604365    0.52319616422
    1.32142685314    0.51820458166
    1.33143766264    0.51326350211
    1.34144847213    0.50837237712
    1.35145928162    0.50353066473
    1.36147009112    0.49873782937
    1.37148090061    0.49399334179
    1.38149171010    0.48929667896
    1.39150251960    0.48464732403
    1.40151332909    0.48004476625
    1.41152413859    0.47548850084
    1.42153494808    0.47097802901
    1.43154575757    0.46651285778
    1.44155656707    0.46209250001
    1.45156737656    0.45771647424
    1.46157818605    0.45338430468
    1.47158899555    0.44909552110
    1.48159980504    0.44484965878
    1.49161061453    0.44064625844
    1.50162142403    0.43648486617
    1.51163223352    0.43236503334
    1.52164304301    0.42828631657
    1.53165385251    0.42424827764
    1.54166466200    0.42025048343
    1.55167547149    0.41629250585
    1.56168628099    0.41237392177
    1.57169709048    0.40849431299
    1.58170789997    0.40465326614
    1.59171870947    0.40085037262
    1.60172951896    0.39708522857
    1.61174032846    0.39335743478
    1.62175113795    0.38966659663
    1.63176194744    0.38601232405
    1.64177275694    0.38239423145
    1.65178356643    0.37881193767
    1.66179437592    0.37526506590
    1.67180518542    0.37175324364
    1.68181599491    0.36827610267
    1.69182680440    0.36483327895
    1.70183761390    0.36142441257
    1.71184842339    0.35804914775
    1.72185923288    0.35470713271
    1.73187004238    0.35139801969
    1.74188085187    0.34812146485
    1.75189166136    0.34487712823
    1.76190247086    0.34166467372
    1.77191328035    0.33848376898
    1.78192408985    0.33533408541
    1.79193489934    0.33221529810
    1.80194570883    0.32912708580
    1.81195651833    0.32606913083
    1.82196732782    0.32304111908
    1.83197813731    0.32004273991
    1.84198894681    0.31707368618
    1.85199975630    0.31413365413
    1.86201056579    0.31122234341
    1.87202137529    0.30833945696
    1.88203218478    0.30548470102
    1.89204299427    0.30265778509
    1.90205380377    0.29985842186
    1.91206461326    0.29708632718
    1.92207542275    0.29434122003
    1.93208623225    0.29162282247
    1.94209704174    0.28893085961
    1.95210785123    0.28626505957
    1.96211866073    0.28362515344
    1.97212947022    0.28101087524
    1.98214027972    0.27842196188
    1.99215108921    0.27585815314
    2.00216189870    0.27331919163
    2.01217270820    0.27080482275
    2.02218351769    0.26831479464
    2.03219432718    0.26584885818
    2.04220513668    0.26340676694
    2.05221594617    0.26098827713
    2.06222675566    0.25859314761
    2.07223756516    0.25622113981
    2.08224837465    0.25387201774
    2.09225918414    0.25154554793
    2.10226999364    0.24924149941
    2.11228080313    0.24695964369
    2.12229161262    0.24469975471
    2.13230242212    0.24246160883
    2.14231323161    0.24024498479
    2.15232404111    0.23804966368
    2.16233485060    0.23587542894
    2.17234566009    0.23372206629
    2.18235646959    0.23158936372
    2.19236727908    0.22947711149
    2.20237808857    0.22738510205
    2.21238889807    0.22531313008
    2.22239970756    0.22326099241
    2.23241051705    0.22122848801
    2.24242132655    0.21921541799
    2.25243213604    0.21722158553
    2.26244294553    0.21524679591
    2.27245375503    0.21329085645
    2.28246456452    0.21135357647
    2.29247537401    0.20943476734
    2.30248618351    0.20753424237
    2.31249699300    0.20565181685
    2.32250780249    0.20378730799
    2.33251861199    0.20194053494
    2.34252942148    0.20011131872
    2.35254023098    0.19829948222
    2.36255104047    0.19650485021
    2.37256184996    0.19472724926
    2.38257265946    0.19296650777
    2.39258346895    0.19122245592
    2.40259427844    0.18949492567
    2.41260508794    0.18778375073
    2.42261589743    0.18608876655
    2.43262670692    0.18440981027
    2.44263751642    0.18274672076
    2.45264832591    0.18109933855
    2.46265913540    0.17946750581
    2.47266994490    0.17785106640
    2.48268075439    0.17624986576
    2.49269156388    0.17466375097
    2.50270237338    0.17309257066
    2.51271318287    0.17153617507
    2.52272399236    0.16999441598
    2.53273480186    0.16846714671
    2.54274561135    0.16695422211
    2.55275642085    0.16545549852
    2.56276723034    0.16397083380
    2.57277803983    0.16250008725
    2.58278884933    0.16104311966
    2.59279965882    0.15959979325
    2.60281046831    0.15816997168
    2.61282127781    0.15675352000
    2.62283208730    0.15535030468
    2.63284289679    0.15396019358
    2.64285370629    0.15258305592
    2.65286451578    0.15121876227
    2.66287532527    0.14986718456
    2.67288613477    0.14852819602
    2.68289694426    0.14720167123
    2.69290775375    0.14588748605
    2.70291856325    0.14458551763
    2.71292937274    0.14329564438
    2.72294018224    0.14201774600
    2.73295099173    0.14075170342
    2.74296180122    0.13949739879
    2.75297261072    0.13825471552
    2.76298342021    0.13702353819
    2.77299422970    0.13580375259
    2.78300503920    0.13459524572
    2.79301584869    0.13339790571
    2.80302665818    0.13221162187
    2.81303746768    0.13103628466
    2.82304827717    0.12987178568
    2.83305908666    0.12871801764
    2.84306989616    0.12757487436
    2.85308070565    0.12644225079
    2.86309151514    0.12532004293
    2.87310232464    0.12420814789
    2.88311313413    0.12310646384
    2.89312394362    0.12201488999
    2.90313475312    0.12093332661
    2.91314556261    0.11986167500
    2.92315637211    0.11879983748
    2.93316718160    0.11774771740
    2.94317799109    0.11670521910
    2.95318880059    0.11567224790
    2.96319961008    0.11464871012
    2.97321041957    0.11363451304
    2.98322122907    0.11262956492
    2.99323203856    0.11163377494
    3.00324284805    0.11064705326
    3.01325365755    0.10966931094
    3.02326446704    0.10870045998
    3.03327527653    0.10774041327
    3.04328608603    0.10678908464
    3.05329689552    0.10584638879
    3.06330770501    0.10491224129
    3.07331851451    0.10398655862
    3.08332932400    0.10306925810
    3.09334013350    0.10216025792
    3.10335094299    0.10125947710
    3.11336175248    0.10036683552
    3.12337256198    0.09948225388
    3.13338337147    0.09860565370
    3.14339418096    0.09773695731
    3.15340499046    0.09687608786
    3.16341579995    0.09602296927
    3.17342660944    0.09517752627
    3.18343741894    0.09433968437
    3.19344822843    0.09350936982
    3.20345903792    0.09268650967
    3.21346984742    0.09187103171
    3.22348065691    0.09106286445
    3.23349146640    0.09026193719
    3.24350227590    0.08946817993
    3.25351308539    0.08868152338
    3.26352389488    0.08790189900
    3.27353470438    0.08712923893
    3.28354551387    0.08636347602
    3.29355632337    0.08560454381
    3.30356713286    0.08485237654
    3.31357794235    0.08410690910
    3.32358875185    0.08336807708
    3.33359956134    0.08263581671
    3.34361037083    0.08191006489
    3.35362118033    0.08119075916
    3.36363198982    0.08047783772
    3.37364279931    0.07977123938
    3.38365360881    0.07907090360
    3.39366441830    0.07837677045
    3.40367522779    0.07768878062
    3.41368603729    0.07700687541
    3.42369684678    0.07633099672
    3.43370765627    0.07566108705
    3.44371846577    0.07499708947
    3.45372927526    0.07433894766
    3.46374008476    0.07368660586
    3.47375089425    0.07304000888
    3.48376170374    0.07239910210
    3.49377251324    0.07176383146
    3.50378332273    0.07113414345
    3.51379413222    0.07050998509
    3.52380494172    0.06989130397
    3.53381575121    0.06927804819
    3.54382656070    0.06867016639
    3.55383737020    0.06806760772
    3.56384817969    0.06747032186
    3.57385898918    0.06687825900
    3.58386979868    0.06629136983
    3.59388060817    0.06570960555
    3.60389141766    0.06513291784
    3.61390222716    0.06456125887
    3.62391303665    0.06399458131
    3.63392384614    0.06343283830
    3.64393465564    0.06287598345
    3.65394546513    0.06232397084
    3.66395627463    0.06177675502
    3.67396708412    0.06123429099
    3.68397789361    0.06069653421
    3.69398870311    0.06016344057
    3.70399951260    0.05963496643
    3.71401032209    0.05911106857
    3.72402113159    0.05859170421
    3.73403194108    0.05807683100
    3.74404275057    0.05756640701
    3.75405356007    0.05706039073
    3.76406436956    0.05655874108
    3.77407517905    0.05606141736
    3.78408598855    0.05556837929
    3.79409679804    0.05507958701
    3.80410760753    0.05459500104
    3.81411841703    0.05411458228
    3.82412922652    0.05363829205
    3.83414003601    0.05316609202
    3.84415084551    0.05269794427
    3.85416165500    0.05223381123
    3.86417246450    0.05177365573
    3.87418327399    0.05131744093
    3.88419408348    0.05086513039
    3.89420489298    0.05041668802
    3.90421570247    0.04997207806
    3.91422651196    0.04953126513
    3.92423732146    0.04909421420
    3.93424813095    0.04866089057
    3.94425894044    0.04823125987
    3.95426974994    0.04780528810
    3.96428055943    0.04738294156
    3.97429136892    0.04696418689
    3.98430217842    0.04654899108
    3.99431298791    0.04613732140
    4.00432379740    0.04572914547
    4.01433460690    0.04532443120
    4.02434541639    0.04492314685
    4.03435622589    0.04452526094
    4.04436703538    0.04413074233
    4.05437784487    0.04373956018
    4.06438865437    0.04335168392
    4.07439946386    0.04296708331
    4.08441027335    0.04258572838
    4.09442108285    0.04220758946
    4.10443189234    0.04183263715
    4.11444270183    0.04146084235
    4.12445351133    0.04109217623
    4.13446432082    0.04072661024
    4.14447513031    0.04036411611
    4.15448593981    0.04000466581
    4.16449674930    0.03964823163
    4.17450755879    0.03929478607
    4.18451836829    0.03894430193
    4.19452917778    0.03859675226
    4.20453998727    0.03825211034
    4.21455079677    0.03791034974
    4.22456160626    0.03757144427
    4.23457241576    0.03723536798
    4.24458322525    0.03690209516
    4.25459403474    0.03657160036
    4.26460484424    0.03624385836
    4.27461565373    0.03591884417
    4.28462646322    0.03559653307
    4.29463727272    0.03527690052
    4.30464808221    0.03495992224
    4.31465889170    0.03464557419
    4.32466970120    0.03433383253
    4.33468051069    0.03402467365
    4.34469132018    0.03371807416
    4.35470212968    0.03341401090
    4.36471293917    0.03311246090
    4.37472374866    0.03281340144
    4.38473455816    0.03251680997
    4.39474536765    0.03222266419
    4.40475617715    0.03193094196
    4.41476698664    0.03164162140
    4.42477779613    0.03135468078
    4.43478860563    0.03107009860
    4.44479941512    0.03078785356
    4.45481022461    0.03050792453
    4.46482103411    0.03023029060
    4.47483184360    0.02995493105
    4.48484265309    0.02968182534
    4.49485346259    0.02941095311
    4.50486427208    0.02914229421
    4.51487508157    0.02887582865
    4.52488589107    0.02861153664
    4.53489670056    0.02834939856
    4.54490751005    0.02808939498
    4.55491831955    0.02783150663
    4.56492912904    0.02757571442
    4.57493993853    0.02732199945
    4.58495074803    0.02707034296
    4.59496155752    0.02682072639
    4.60497236702    0.02657313132
    4.61498317651    0.02632753952
    4.62499398600    0.02608393291
    4.63500479550    0.02584229357
    4.64501560499    0.02560260376
    4.65502641448    0.02536484588
    4.66503722398    0.02512900249
    4.67504803347    0.02489505631
    4.68505884296    0.02466299022
    4.69506965246    0.02443278724
    4.70508046195    0.02420443054
    4.71509127144    0.02397790347
    4.72510208094    0.02375318948
    4.73511289043    0.02353027221
    4.74512369992    0.02330913542
    4.75513450942    0.02308976303
    4.76514531891    0.02287213907
    4.77515612841    0.02265624775
    4.78516693790    0.02244207340
    4.79517774739    0.02222960049
    4.80518855689    0.02201881363
    4.81519936638    0.02180969756
    4.82521017587    0.02160223716
    4.83522098537    0.02139641743
    4.84523179486    0.02119222351
    4.85524260435    0.02098964068
    4.86525341385    0.02078865433
    4.87526422334    0.02058924999
    4.88527503283    0.02039141331
    4.89528584233    0.02019513006
    4.90529665182    0.02000038615
    4.91530746131    0.01980716759
    4.92531827081    0.01961546054
    4.93532908030    0.01942525124
    4.94533988979    0.01923652609
    4.95535069929    0.01904927158
    4.96536150878    0.01886347433
    4.97537231828    0.01867912106
    4.98538312777    0.01849619863
    4.99539393726    0.01831469398
    5.00540474676    0.01813459419
    5.01541555625    0.01795588643
    5.02542636574    0.01777855801
    5.03543717524    0.01760259630
    5.04544798473    0.01742798883
    5.05545879422    0.01725472319
    5.06546960372    0.01708278711
    5.07548041321    0.01691216841
    5.08549122270    0.01674285501
    5.09550203220    0.01657483494
    5.10551284169    0.01640809632
    5.11552365118    0.01624262740
    5.12553446068    0.01607841648
    5.13554527017    0.01591545201
    5.14555607966    0.01575372250
    5.15556688916    0.01559321657
    5.16557769865    0.01543392294
    5.17558850815    0.01527583042
    5.18559931764    0.01511892791
    5.19561012713    0.01496320441
    5.20562093663    0.01480864900
    5.21563174612    0.01465525088
    5.22564255561    0.01450299930
    5.23565336511    0.01435188362
    5.24566417460    0.01420189330
    5.25567498409    0.01405301786
    5.26568579359    0.01390524693
    5.27569660308    0.01375857022
    5.28570741257    0.01361297751
    5.29571822207    0.01346845869
    5.30572903156    0.01332500371
    5.31573984105    0.01318260262
    5.32575065055    0.01304124553
    5.33576146004    0.01290092266
    5.34577226954    0.01276162430
    5.35578307903    0.01262334079
    5.36579388852    0.01248606260
    5.37580469802    0.01234978023
    5.38581550751    0.01221448429
    5.39582631700    0.01208016546
    5.40583712650    0.01194681448
    5.41584793599    0.01181442218
    5.42585874548    0.01168297946
    5.43586955498    0.01155247729
    5.44588036447    0.01142290672
    5.45589117396    0.01129425887
    5.46590198346    0.01116652493
    5.47591279295    0.01103969616
    5.48592360244    0.01091376388
    5.49593441194    0.01078871951
    5.50594522143    0.01066455450
    5.51595603092    0.01054126041
    5.52596684042    0.01041882882
    5.53597764991    0.01029725141
    5.54598845941    0.01017651993
    5.55599926890    0.01005662616
    5.56601007839    0.00993756199
    5.57602088789    0.00981931934
    5.58603169738    0.00970189021
    5.59604250687    0.00958526665
    5.60605331637    0.00946944080
    5.61606412586    0.00935440483
    5.62607493535    0.00924015098
    5.63608574485    0.00912667157
    5.64609655434    0.00901395895
    5.65610736383    0.00890200556
    5.66611817333    0.00879080387
    5.67612898282    0.00868034643
    5.68613979231    0.00857062584
    5.69615060181    0.00846163475
    5.70616141130    0.00835336589
    5.71617222080    0.00824581201
    5.72618303029    0.00813896595
    5.73619383978    0.00803282058
    5.74620464928    0.00792736884
    5.75621545877    0.00782260373
    5.76622626826    0.00771851827
    5.77623707776    0.00761510558
    5.78624788725    0.00751235879
    5.79625869674    0.00741027112
    5.80626950624    0.00730883580
    5.81628031573    0.00720804614
    5.82629112522    0.00710789550
    5.83630193472    0.00700837728
    5.84631274421    0.00690948493
    5.85632355370    0.00681121195
    5.86633436320    0.00671355189
    5.87634517269    0.00661649836
    5.88635598218    0.00652004500
    5.89636679168    0.00642418549
    5.90637760117    0.00632891359
    5.91638841067    0.00623422307
    5.92639922016    0.00614010777
    5.93641002965    0.00604656157
    5.94642083915    0.00595357839
    5.95643164864    0.00586115218
    5.96644245813    0.00576927698
    5.97645326763    0.00567794682
    5.98646407712    0.00558715580
    5.99647488661    0.00549689808
    6.00648569611    0.00540716781
    6.01649650560    0.00531795924
    6.02650731509    0.00522926663
    6.03651812459    0.00514108428
    6.04652893408    0.00505340654
    6.05653974357    0.00496622780
    6.06655055307    0.00487954248
    6.07656136256    0.00479334506
    6.08657217206    0.00470763003
    6.09658298155    0.00462239194
    6.10659379104    0.00453762538
    6.11660460054    0.00445332496
    6.12661541003    0.00436948535
    6.13662621952    0.00428610123
    6.14663702902    0.00420316734
    6.15664783851    0.00412067845
    6.16665864800    0.00403862936
    6.17666945750    0.00395701492
    6.18668026699    0.00387582998
    6.19669107648    0.00379506948
    6.20670188598    0.00371472834
    6.21671269547    0.00363480156
    6.22672350496    0.00355528414
    6.23673431446    0.00347617112
    6.24674512395    0.00339745760
    6.25675593344    0.00331913867
    6.26676674294    0.00324120949
    6.27677755243    0.00316366522
    6.28678836193    0.00308650109
    6.29679917142    0.00300971232
    6.30680998091    0.00293329420
    6.31682079041    0.00285724201
    6.32683159990    0.00278155110
    6.33684240939    0.00270621682
    6.34685321889    0.00263123458
    6.35686402838    0.00255659978
    6.36687483787    0.00248230788
    6.37688564737    0.00240835436
    6.38689645686    0.00233473474
    6.39690726635    0.00226144453
    6.40691807585    0.00218847932
    6.41692888534    0.00211583469
    6.42693969483    0.00204350626
    6.43695050433    0.00197148968
    6.44696131382    0.00189978063
    6.45697212332    0.00182837479
    6.46698293281    0.00175726791
    6.47699374230    0.00168645572
    6.48700455180    0.00161593401
    6.49701536129    0.00154569858
    6.50702617078    0.00147574526
    6.51703698028    0.00140606990
    6.52704778977    0.00133666838
    6.53705859926    0.00126753660
    6.54706940876    0.00119867048
    6.55708021825    0.00113006598
    6.56709102774    0.00106171907
    6.57710183724    0.00099362573
    6.58711264673    0.00092578200
    6.59712345622    0.00085818390
    6.60713426572    0.00079082751
    6.61714507521    0.00072370891
    6.62715588470    0.00065682420
    6.63716669420    0.00059016952
    6.64717750369    0.00052374102
    6.65718831319    0.00045753480
    6.66719912268    0.00039154711
    6.67720993217    0.00032577417
    6.68722074167    0.00026021223
    6.69723155116    0.00019485754
    6.70724236065    0.00012970639
    6.71725317015    0.00006475510
    6.72726397964    0.00000000000
  0  1  2  0  0.000000  #orbital l, n, z, is_polarized, population
 314   0.0100170843787149   3.1353474105377774
    0.00000000000    2.38066178283
    0.01001708438    2.38028386102
    0.02003416876    2.37915055448
    0.03005125314    2.37726415744
    0.04006833751    2.37462840062
    0.05008542189    2.37124845353
    0.06010250627    2.36713090037
    0.07011959065    2.36228369805
    0.08013667503    2.35671612467
    0.09015375941    2.35043871988
    0.10017084379    2.34346321814
    0.11018792817    2.33580247576
    0.12020501254    2.32747039265
    0.13022209692    2.31848182975
    0.14023918130    2.30885252319
    0.15025626568    2.29859899621
    0.16027335006    2.28773846984
    0.17029043444    2.27628877352
    0.18030751882    2.26426825644
    0.19032460320    2.25169570082
    0.20034168757    2.23859023791
    0.21035877195    2.22497126759
    0.22037585633    2.21085838229
    0.23039294071    2.19627129609
    0.24041002509    2.18122977926
    0.25042710947    2.16575359905
    0.26044419385    2.14986246681
    0.27046127823    2.13357599186
    0.28047836260    2.11691364205
    0.29049544698    2.09989471122
    0.30051253136    2.08253829317
    0.31052961574    2.06486326215
    0.32054670012    2.04688825939
    0.33056378450    2.02863168525
    0.34058086888    2.01011169639
    0.35059795326    1.99134620760
    0.36061503763    1.97235289734
    0.37063212201    1.95314921632
    0.38064920639    1.93375239854
    0.39066629077    1.91417947378
    0.40068337515    1.89444728092
    0.41070045953    1.87457248117
    0.42071754391    1.85457157059
    0.43073462828    1.83446089111
    0.44075171266    1.81425663925
    0.45076879704    1.79397487224
    0.46078588142    1.77363151072
    0.47080296580    1.75324233769
    0.48082005018    1.73282299332
    0.49083713456    1.71238896548
    0.50085421894    1.69195557558
    0.51087130331    1.67153795991
    0.52088838769    1.65115104647
    0.53090547207    1.63080952740
    0.54092255645    1.61052782726
    0.55093964083    1.59032006775
    0.56095672521    1.57020002885
    0.57097380959    1.55018110763
    0.58099089397    1.53027627448
    0.59100797834    1.51049802828
    0.60102506272    1.49085835058
    0.61104214710    1.47136865992
    0.62105923148    1.45203976702
    0.63107631586    1.43288183134
    0.64109340024    1.41390432038
    0.65111048462    1.39511597184
    0.66112756900    1.37652475983
    0.67114465337    1.35813786561
    0.68116173775    1.33996165352
    0.69117882213    1.32200165270
    0.70119590651    1.30426254498
    0.71121299089    1.28674815942
    0.72123007527    1.26946147374
    0.73124715965    1.25240462275
    0.74126424402    1.23557891397
    0.75128132840    1.21898485032
    0.76129841278    1.20262215969
    0.77131549716    1.18648983123
    0.78133258154    1.17058615794
    0.79134966592    1.15490878510
    0.80136675030    1.13945476395
    0.81138383468    1.12422061007
    0.82140091905    1.10920236564
    0.83141800343    1.09439566488
    0.84143508781    1.07979580180
    0.85145217219    1.06539779944
    0.86146925657    1.05119647959
    0.87148634095    1.03718653227
    0.88150342533    1.02336258393
    0.89152050971    1.00971926359
    0.90153759408    0.99625126591
    0.91155467846    0.98295341067
    0.92157176284    0.96982069760
    0.93158884722    0.95684835613
    0.94160593160    0.94403188936
    0.95162301598    0.93136711169
    0.96164010036    0.91885017983
    0.97165718474    0.90647761678
    0.98167426911    0.89424632861
    0.99169135349    0.88215361369
    1.00170843787    0.87019716493
    1.01172552225    0.85837506905
    1.02174260663    0.84668574828
    1.03175969101    0.83512778011
    1.04177677539    0.82369976047
    1.05179385977    0.81240029998
    1.06181094414    0.80122802731
    1.07182802852    0.79018158662
    1.08184511290    0.77925963782
    1.09186219728    0.76846085638
    1.10187928166    0.75778393324
    1.11189636604    0.74722757461
    1.12191345042    0.73679050182
    1.13193053479    0.72647145120
    1.14194761917    0.71626917388
    1.15196470355    0.70618243563
    1.16198178793    0.69621001674
    1.17199887231    0.68635071184
    1.18201595669    0.67660332972
    1.19203304107    0.66696669323
    1.20205012545    0.65743963907
    1.21206720982    0.64802101767
    1.22208429420    0.63870969302
    1.23210137858    0.62950454252
    1.24211846296    0.62040445682
    1.25213554734    0.61140833969
    1.26215263172    0.60251510783
    1.27216971610    0.59372369076
    1.28218680048    0.58503303063
    1.29220388485    0.57644208213
    1.30222096923    0.56794981227
    1.31223805361    0.55955520029
    1.32225513799    0.55125723748
    1.33227222237    0.54305492707
    1.34228930675    0.53494728403
    1.35230639113    0.52693333499
    1.36232347551    0.51901211807
    1.37234055988    0.51118268274
    1.38235764426    0.50344408966
    1.39237472864    0.49579541060
    1.40239181302    0.48823572824
    1.41240889740    0.48076413607
    1.42242598178    0.47337973827