<preamble>
<Code_and_file_information>
              Git Branch: develop; tag, hash: v1.3-302-gab601c1b
  Date generated        : 2024/12/19 at 11:17
</Code_and_file_information>
<Conquest_pseudopotential_info>
  Hamann code version   : v3.3.1
  Hamann input file name: O.in (appended at end of file)
  Core radii (bohr)     : l=0 1.350 l=1 1.450 l=2 1.250
  2 valence shells      : 2s 2p
  XC functional code    :  000101
  XC description        : GGA PBE96
  Includes partial core corrections
  Pseudopotential type  : ONCVPSP
</Conquest_pseudopotential_info>
<Conquest_basis_info>
O basis set with GGA PBE96 functional
n = 2, l = 0, 2 zetas
   Radii:   4.91  2.58
n = 2, l = 1, 2 zetas
   Radii:   4.91  2.58
n = 3, l = 2, 1 zetas, perturbative polarisation shell
   Radii:   4.91
</Conquest_basis_info>
<pseudopotential_header>
 O  pb nrl pcec
</pseudopotential_header>
</preamble>
O                     # Element symbol
O                     # Label
  8.00                    # Atomic number
      6.0000000000                    # Valence charge
     16.0000000000                    # Mass
      0.0000000000                    # Self energy
   2   5                    # Lmax for basis, no of orbitals
   2   5                    # Lmax for projectors, no of proj
# PAOs:_______________
  0  2  1  0  2.000000  #orbital l, n, z, is_polarized, population
 492   0.0100088191331246   4.9143301943641768
    0.00000000000    1.35992252930
    0.01000881913    1.35996111231
    0.02001763827    1.36007662611
    0.03002645740    1.36026836708
    0.04003527653    1.36053516420
    0.05004409567    1.36087538175
    0.06005291480    1.36128692308
    0.07006173393    1.36176723549
    0.08007055306    1.36231331612
    0.09007937220    1.36292171902
    0.10008819133    1.36358856326
    0.11009701046    1.36430954220
    0.12010582960    1.36507993388
    0.13011464873    1.36589461252
    0.14012346786    1.36674806116
    0.15013228700    1.36763438544
    0.16014110613    1.36854732856
    0.17014992526    1.36948028728
    0.18015874440    1.37042632915
    0.19016756353    1.37137821074
    0.20017638266    1.37232839709
    0.21018520180    1.37326908210
    0.22019402093    1.37419221005
    0.23020284006    1.37508949806
    0.24021165919    1.37595245952
    0.25022047833    1.37677242844
    0.26022929746    1.37754058463
    0.27023811659    1.37824797958
    0.28024693573    1.37888556317
    0.29025575486    1.37944421087
    0.30026457399    1.37991475153
    0.31027339313    1.38028799557
    0.32028221226    1.38055476348
    0.33029103139    1.38070591463
    0.34029985053    1.38073237597
    0.35030866966    1.38062517098
    0.36031748879    1.38037544824
    0.37032630793    1.37997450991
    0.38033512706    1.37941383970
    0.39034394619    1.37868513040
    0.40035276532    1.37778031070
    0.41036158446    1.37669157132
    0.42037040359    1.37541139016
    0.43037922272    1.37393255648
    0.44038804186    1.37224819397
    0.45039686099    1.37035178254
    0.46040568012    1.36823717879
    0.47041449926    1.36589863503
    0.48042331839    1.36333081680
    0.49043213752    1.36052881876
    0.50044095666    1.35748817891
    0.51044977579    1.35420489110
    0.52045859492    1.35067541573
    0.53046741406    1.34689668867
    0.54047623319    1.34286612832
    0.55048505232    1.33858164079
    0.56049387145    1.33404162332
    0.57050269059    1.32924496573
    0.58051150972    1.32419105015
    0.59052032885    1.31887974895
    0.60052914799    1.31331142084
    0.61053796712    1.30748690543
    0.62054678625    1.30140751603
    0.63055560539    1.29507503100
    0.64056442452    1.28849168354
    0.65057324365    1.28166015022
    0.66058206279    1.27458353809
    0.67059088192    1.26726537075
    0.68059970105    1.25970957320
    0.69060852019    1.25192045584
    0.70061733932    1.24390269755
    0.71062615845    1.23566132804
    0.72063497758    1.22720170956
    0.73064379672    1.21852951808
    0.74065261585    1.20965072409
    0.75066143498    1.20057157308
    0.76067025412    1.19129856577
    0.77067907325    1.18183843831
    0.78068789238    1.17219814239
    0.79069671152    1.16238482553
    0.80070553065    1.15240581139
    0.81071434978    1.14226858043
    0.82072316892    1.13198075081
    0.83073198805    1.12155005964
    0.84074080718    1.11098434468
    0.85074962632    1.10029152646
    0.86075844545    1.08947959089
    0.87076726458    1.07855657240
    0.88077608371    1.06753053763
    0.89078490285    1.05640956964
    0.90079372198    1.04520175274
    0.91080254111    1.03391515783
    0.92081136025    1.02255782831
    0.93082017938    1.01113776662
    0.94082899851    0.99966292121
    0.95083781765    0.98814117416
    0.96084663678    0.97658032916
    0.97085545591    0.96498810017
    0.98086427505    0.95337210038
    0.99087309418    0.94173983168
    1.00088191331    0.93009867460
    1.01089073245    0.91845587855
    1.02089955158    0.90681855254
    1.03090837071    0.89519365618
    1.04091718984    0.88358799105
    1.05092600898    0.87200819244
    1.06093482811    0.86046072131
    1.07094364724    0.84895185667
    1.08095246638    0.83748768815
    1.09096128551    0.82607410896
    1.10097010464    0.81471680910
    1.11097892378    0.80342126891
    1.12098774291    0.79219275287
    1.13099656204    0.78103630386
    1.14100538118    0.76995673759
    1.15101420031    0.75895863757
    1.16102301944    0.74804635032
    1.17103183858    0.73722398109
    1.18104065771    0.72649538994
    1.19104947684    0.71586418833
    1.20105829597    0.70533373618
    1.21106711511    0.69490713939
    1.22107593424    0.68458724799
    1.23108475337    0.67437665479
    1.24109357251    0.66427769464
    1.25110239164    0.65429244428
    1.26111121077    0.64442272283
    1.27112002991    0.63467009299
    1.28112884904    0.62503586276
    1.29113766817    0.61552108800
    1.30114648731    0.60612657550
    1.31115530644    0.59685288686
    1.32116412557    0.58770034294
    1.33117294471    0.57866902936
    1.34118176384    0.56975880145
    1.35119058297    0.56096929163
    1.36119940210    0.55229991128
    1.37120822124    0.54374992158
    1.38121704037    0.53531848676
    1.39122585950    0.52700473909
    1.40123467864    0.51880777897
    1.41124349777    0.51072666270
    1.42125231690    0.50276041567
    1.43126113604    0.49490803284
    1.44126995517    0.48716848178
    1.45127877430    0.47954070536
    1.46128759344    0.47202362431
    1.47129641257    0.46461613927
    1.48130523170    0.45731713284
    1.49131405084    0.45012547206
    1.50132286997    0.44304001029
    1.51133168910    0.43605958898
    1.52134050823    0.42918303935
    1.53134932737    0.42240918403
    1.54135814650    0.41573683859
    1.55136696563    0.40916481291
    1.56137578477    0.40269191259
    1.57138460390    0.39631694015
    1.58139342303    0.39003869621
    1.59140224217    0.38385598059
    1.60141106130    0.37776759335
    1.61141988043    0.37177233572
    1.62142869957    0.36586901102
    1.63143751870    0.36005642549
    1.64144633783    0.35433338907
    1.65145515697    0.34869871610
    1.66146397610    0.34315122603
    1.67147279523    0.33768974403
    1.68148161436    0.33231310156
    1.69149043350    0.32702013695
    1.70149925263    0.32180969582
    1.71150807176    0.31668063162
    1.72151689090    0.31163180600
    1.73152571003    0.30666208923
    1.74153452916    0.30177036053
    1.75154334830    0.29695550843
    1.76155216743    0.29221643102
    1.77156098656    0.28755203627
    1.78156980570    0.28296124224
    1.79157862483    0.27844297732
    1.80158744396    0.27399618042
    1.81159626310    0.26961980115
    1.82160508223    0.26531279997
    1.83161390136    0.26107414834
    1.84162272049    0.25690282884
    1.85163153963    0.25279783526
    1.86164035876    0.24875817271
    1.87164917789    0.24478285765
    1.88165799703    0.24087091802
    1.89166681616    0.23702139321
    1.90167563529    0.23323333416
    1.91168445443    0.22950580332
    1.92169327356    0.22583787472
    1.93170209269    0.22222863395
    1.94171091183    0.21867717812
    1.95171973096    0.21518261592
    1.96172855009    0.21174406750
    1.97173736923    0.20836066453
    1.98174618836    0.20503155009
    1.99175500749    0.20175587868
    2.00176382662    0.19853281611
    2.01177264576    0.19536153951
    2.02178146489    0.19224123722
    2.03179028402    0.18917110872
    2.04179910316    0.18615036459
    2.05180792229    0.18317822641
    2.06181674142    0.18025392669
    2.07182556056    0.17737670879
    2.08183437969    0.17454582682
    2.09184319882    0.17176054555
    2.10185201796    0.16902014033
    2.11186083709    0.16632389700
    2.12186965622    0.16367111177
    2.13187847536    0.16106109113
    2.14188729449    0.15849315177
    2.15189611362    0.15596662043
    2.16190493275    0.15348083387
    2.17191375189    0.15103513867
    2.18192257102    0.14862889120
    2.19193139015    0.14626145750
    2.20194020929    0.14393221312
    2.21194902842    0.14164054309
    2.22195784755    0.13938584173
    2.23196666669    0.13716751261
    2.24197548582    0.13498496841
    2.25198430495    0.13283763079
    2.26199312409    0.13072493030
    2.27200194322    0.12864630630
    2.28201076235    0.12660120678
    2.29201958149    0.12458908830
    2.30202840062    0.12260941588
    2.31203721975    0.12066166287
    2.32204603888    0.11874531085
    2.33205485802    0.11685984951
    2.34206367715    0.11500477657
    2.35207249628    0.11317959763
    2.36208131542    0.11138382612
    2.37209013455    0.10961698311
    2.38209895368    0.10787859731
    2.39210777282    0.10616820485
    2.40211659195    0.10448534928
    2.41212541108    0.10282958140
    2.42213423022    0.10120045917
    2.43214304935    0.09959754762
    2.44215186848    0.09802041875
    2.45216068762    0.09646865140
    2.46216950675    0.09494183120
    2.47217832588    0.09343955042
    2.48218714501    0.09196140790
    2.49219596415    0.09050700897
    2.50220478328    0.08907596530
    2.51221360241    0.08766789486
    2.52222242155    0.08628242179
    2.53223124068    0.08491917635
    2.54224005981    0.08357779475
    2.55224887895    0.08225791916
    2.56225769808    0.08095919753
    2.57226651721    0.07968128357
    2.58227533635    0.07842383660
    2.59228415548    0.07718652153
    2.60229297461    0.07596900871
    2.61230179375    0.07477097389
    2.62231061288    0.07359209813
    2.63231943201    0.07243206768
    2.64232825114    0.07129057396
    2.65233707028    0.07016731342
    2.66234588941    0.06906198751
    2.67235470854    0.06797430256
    2.68236352768    0.06690396974
    2.69237234681    0.06585070495
    2.70238116594    0.06481422877
    2.71238998508    0.06379426636
    2.72239880421    0.06279054742
    2.73240762334    0.06180280610
    2.74241644248    0.06083078091
    2.75242526161    0.05987421469
    2.76243408074    0.05893285450
    2.77244289988    0.05800645159
    2.78245171901    0.05709476130
    2.79246053814    0.05619754301
    2.80246935727    0.05531456007
    2.81247817641    0.05444557974
    2.82248699554    0.05359037312
    2.83249581467    0.05274871510
    2.84250463381    0.05192038426
    2.85251345294    0.05110516289
    2.86252227207    0.05030283682
    2.87253109121    0.04951319546
    2.88253991034    0.04873603168
    2.89254872947    0.04797114179
    2.90255754861    0.04721832545
    2.91256636774    0.04647738564
    2.92257518687    0.04574812860
    2.93258400601    0.04503036378
    2.94259282514    0.04432390375
    2.95260164427    0.04362856420
    2.96261046340    0.04294416388
    2.97261928254    0.04227052451
    2.98262810167    0.04160747077
    2.99263692080    0.04095483023
    3.00264573994    0.04031243331
    3.01265455907    0.03968011324
    3.02266337820    0.03905770600
    3.03267219734    0.03844505027
    3.04268101647    0.03784198739
    3.05268983560    0.03724836135
    3.06269865474    0.03666401868
    3.07270747387    0.03608880845
    3.08271629300    0.03552258224
    3.09272511214    0.03496519404
    3.10273393127    0.03441650029
    3.11274275040    0.03387635976
    3.12275156953    0.03334463357
    3.13276038867    0.03282118510
    3.14276920780    0.03230588001
    3.15277802693    0.03179858614
    3.16278684607    0.03129917354
    3.17279566520    0.03080751436
    3.18280448433    0.03032348288
    3.19281330347    0.02984695542
    3.20282212260    0.02937781035
    3.21283094173    0.02891592802
    3.22283976087    0.02846119077
    3.23284858000    0.02801348282
    3.24285739913    0.02757269035
    3.25286621827    0.02713870135
    3.26287503740    0.02671140567
    3.27288385653    0.02629069496
    3.28289267566    0.02587646263
    3.29290149480    0.02546860385
    3.30291031393    0.02506701549
    3.31291913306    0.02467159611
    3.32292795220    0.02428224591
    3.33293677133    0.02389886673
    3.34294559046    0.02352136201
    3.35295440960    0.02314963675
    3.36296322873    0.02278359751
    3.37297204786    0.02242315237
    3.38298086700    0.02206821087
    3.39298968613    0.02171868407
    3.40299850526    0.02137448443
    3.41300732440    0.02103552586
    3.42301614353    0.02070172364
    3.43302496266    0.02037299443
    3.44303378179    0.02004925625
    3.45304260093    0.01973042843
    3.46305142006    0.01941643160
    3.47306023919    0.01910718768
    3.48306905833    0.01880261985
    3.49307787746    0.01850265253
    3.50308669659    0.01820721133
    3.51309551573    0.01791622309
    3.52310433486    0.01762961581
    3.53311315399    0.01734731865
    3.54312197313    0.01706926189
    3.55313079226    0.01679537694
    3.56313961139    0.01652559632
    3.57314843053    0.01625985361
    3.58315724966    0.01599808346
    3.59316606879    0.01574022155
    3.60317488792    0.01548620460
    3.61318370706    0.01523597034
    3.62319252619    0.01498945747
    3.63320134532    0.01474660569
    3.64321016446    0.01450735564
    3.65321898359    0.01427164891
    3.66322780272    0.01403942801
    3.67323662186    0.01381063635
    3.68324544099    0.01358521827
    3.69325426012    0.01336311894
    3.70326307926    0.01314428443
    3.71327189839    0.01292866164
    3.72328071752    0.01271619833
    3.73328953666    0.01250684304
    3.74329835579    0.01230054517
    3.75330717492    0.01209725486
    3.76331599405    0.01189692306
    3.77332481319    0.01169950149
    3.78333363232    0.01150494260
    3.79334245145    0.01131319961
    3.80335127059    0.01112422645
    3.81336008972    0.01093797777
    3.82336890885    0.01075440892
    3.83337772799    0.01057347594
    3.84338654712    0.01039513557
    3.85339536625    0.01021934520
    3.86340418539    0.01004606287
    3.87341300452    0.00987524729
    3.88342182365    0.00970685780
    3.89343064279    0.00954085434
    3.90343946192    0.00937719749
    3.91344828105    0.00921584843
    3.92345710018    0.00905676891
    3.93346591932    0.00889992130
    3.94347473845    0.00874526852
    3.95348355758    0.00859277405
    3.96349237672    0.00844240194
    3.97350119585    0.00829411676
    3.98351001498    0.00814788365
    3.99351883412    0.00800366824
    4.00352765325    0.00786143671
    4.01353647238    0.00772115571
    4.02354529152    0.00758279243
    4.03355411065    0.00744631453
    4.04356292978    0.00731169015
    4.05357174892    0.00717888791
    4.06358056805    0.00704787689
    4.07358938718    0.00691862664
    4.08359820631    0.00679110715
    4.09360702545    0.00666528887
    4.10361584458    0.00654114265
    4.11362466371    0.00641863980
    4.12363348285    0.00629775205
    4.13364230198    0.00617845151
    4.14365112111    0.00606071074
    4.15365994025    0.00594450266
    4.16366875938    0.00582980061
    4.17367757851    0.00571657830
    4.18368639765    0.00560480982
    4.19369521678    0.00549446964
    4.20370403591    0.00538553259
    4.21371285505    0.00527797386
    4.22372167418    0.00517176899
    4.23373049331    0.00506689387
    4.24373931244    0.00496332473
    4.25374813158    0.00486103813
    4.26375695071    0.00476001097
    4.27376576984    0.00466022047
    4.28377458898    0.00456164415
    4.29378340811    0.00446425987
    4.30379222724    0.00436804577
    4.31380104638    0.00427298031
    4.32380986551    0.00417904224
    4.33381868464    0.00408621059
    4.34382750378    0.00399446470
    4.35383632291    0.00390378415
    4.36384514204    0.00381414883
    4.37385396118    0.00372553890
    4.38386278031    0.00363793475
    4.39387159944    0.00355131708
    4.40388041857    0.00346566680
    4.41388923771    0.00338096510
    4.42389805684    0.00329719340
    4.43390687597    0.00321433338
    4.44391569511    0.00313236694
    4.45392451424    0.00305127622
    4.46393333337    0.00297104359
    4.47394215251    0.00289165164
    4.48395097164    0.00281308318
    4.49395979077    0.00273532125
    4.50396860991    0.00265834909
    4.51397742904    0.00258215014
    4.52398624817    0.00250670807
    4.53399506731    0.00243200671
    4.54400388644    0.00235803014
    4.55401270557    0.00228476258
    4.56402152470    0.00221218848
    4.57403034384    0.00214029244
    4.58403916297    0.00206905928
    4.59404798210    0.00199847396
    4.60405680124    0.00192852164
    4.61406562037    0.00185918765
    4.62407443950    0.00179045747
    4.63408325864    0.00172231675
    4.64409207777    0.00165475133
    4.65410089690    0.00158774716
    4.66410971604    0.00152129039
    4.67411853517    0.00145536728
    4.68412735430    0.00138996427
    4.69413617344    0.00132506792
    4.70414499257    0.00126066497
    4.71415381170    0.00119674225
    4.72416263083    0.00113328675
    4.73417144997    0.00107028561
    4.74418026910    0.00100772607
    4.75418908823    0.00094559552
    4.76419790737    0.00088388144
    4.77420672650    0.00082257149
    4.78421554563    0.00076165338
    4.79422436477    0.00070111500
    4.80423318390    0.00064094430
    4.81424200303    0.00058112937
    4.82425082217    0.00052165841
    4.83425964130    0.00046251971
    4.84426846043    0.00040370168
    4.85427727957    0.00034519282
    4.86428609870    0.00028698158
    4.87429491783    0.00022905675
    4.88430373696    0.00017140718
    4.89431255610    0.00011402182
    4.90432137523    0.00005688971
    4.91433019436    0.00000000000
  0  2  2  0  0.000000  #orbital l, n, z, is_polarized, population
 259   0.0100022326572360   2.5805760255668990
    0.00000000000    1.59116760159
    0.01000223266    1.59122578455
    0.02000446531    1.59140000010
    0.03000669797    1.59168925129
    0.04000893063    1.59209187886
    0.05001116329    1.59260556510
    0.06001339594    1.59322733921
    0.07001562860    1.59395358414
    0.08001786126    1.59478004499
    0.09002009392    1.59570183898
    0.10002232657    1.59671346693
    0.11002455923    1.59780882638
    0.12002679189    1.59898122629
    0.13002902454    1.60022340331
    0.14003125720    1.60152753967
    0.15003348986    1.60288528273
    0.16003572252    1.60428776601
    0.17003795517    1.60572563198
    0.18004018783    1.60718905637
    0.19004242049    1.60866777397
    0.20004465314    1.61015110617
    0.21004688580    1.61162798978
    0.22004911846    1.61308700754
    0.23005135112    1.61451641984
    0.24005358377    1.61590419795
    0.25005581643    1.61723805842
    0.26005804909    1.61850549871
    0.27006028175    1.61969383392
    0.28006251440    1.62079023443
    0.29006474706    1.62178176458
    0.30006697972    1.62265542187
    0.31006921237    1.62339817692
    0.32007144503    1.62399701387
    0.33007367769    1.62443897103
    0.34007591035    1.62471118169
    0.35007814300    1.62480091497
    0.36008037566    1.62469561638
    0.37008260832    1.62438294810
    0.38008484097    1.62385082862
    0.39008707363    1.62308747173
    0.40008930629    1.62208142459
    0.41009153895    1.62082160462
    0.42009377160    1.61929733529
    0.43009600426    1.61749838031
    0.44009823692    1.61541497640
    0.45010046958    1.61303786412
    0.46010270223    1.61035831700
    0.47010493489    1.60736816849
    0.48010716755    1.60405983681
    0.49010940020    1.60042634757
    0.50011163286    1.59646135395
    0.51011386552    1.59215915451
    0.52011609818    1.58751470841
    0.53011833083    1.58252364813
    0.54012056349    1.57718228956
    0.55012279615    1.57148763944
    0.56012502881    1.56543740025
    0.57012726146    1.55902997240
    0.58012949412    1.55226445394
    0.59013172678    1.54514063767
    0.60013395943    1.53765900579
    0.61013619209    1.52982072223
    0.62013842475    1.52162762254
    0.63014065741    1.51308220175
    0.64014289006    1.50418760003
    0.65014512272    1.49494758643
    0.66014735538    1.48536654079
    0.67014958803    1.47544943403
    0.68015182069    1.46520180679
    0.69015405335    1.45462974684
    0.70015628601    1.44373986512
    0.71015851866    1.43253927083
    0.72016075132    1.42103554557
    0.73016298398    1.40923671674
    0.74016521664    1.39715123033
    0.75016744929    1.38478792330
    0.76016968195    1.37215599566
    0.77017191461    1.35926498236
    0.78017414726    1.34612472519
    0.79017637992    1.33274534478
    0.80017861258    1.31913721281
    0.81018084524    1.30531092454
    0.82018307789    1.29127727172
    0.83018531055    1.27704721608
    0.84018754321    1.26263186333
    0.85018977587    1.24804243783
    0.86019200852    1.23329025791
    0.87019424118    1.21838671198
    0.88019647384    1.20334323537
    0.89019870649    1.18817128795
    0.90020093915    1.17288233254
    0.91020317181    1.15748781419
    0.92020540447    1.14199914016
    0.93020763712    1.12642766074
    0.94020986978    1.11078465087
    0.95021210244    1.09508129244
    0.96021433509    1.07932865740
    0.97021656775    1.06353769143
    0.98021880041    1.04771919846
    0.99022103307    1.03188382566
    1.00022326572    1.01604204910
    1.01022549838    1.00020415998
    1.02022773104    0.98438025141
    1.03022996370    0.96858020562
    1.04023219635    0.95281368177
    1.05023442901    0.93709010415
    1.06023666167    0.92141865081
    1.07023889432    0.90580824271
    1.08024112698    0.89026753324
    1.09024335964    0.87480489811
    1.10024559230    0.85942842582
    1.11024782495    0.84414590837
    1.12025005761    0.82896483260
    1.13025229027    0.81389237188
    1.14025452292    0.79893537830
    1.15025675558    0.78410037544
    1.16025898824    0.76939355156
    1.17026122090    0.75482075352
    1.18026345355    0.74038748115
    1.19026568621    0.72609888238
    1.20026791887    0.71195974904
    1.21027015153    0.69797451327
    1.22027238418    0.68414724485
    1.23027461684    0.67048164923
    1.24027684950    0.65698106636
    1.25027908215    0.64364847048
    1.26028131481    0.63048647076
    1.27028354747    0.61749731277
    1.28028578013    0.60468288103
    1.29028801278    0.59204470243
    1.30029024544    0.57958395054
    1.31029247810    0.56730145102
    1.32029471076    0.55519768786
    1.33029694341    0.54327281098
    1.34029917607    0.53152664305
    1.35030140873    0.51995869157
    1.36030364138    0.50856814663
    1.37030587404    0.49735397510
    1.38030810670    0.48631500199
    1.39031033936    0.47544999824
    1.40031257201    0.46475769479
    1.41031480467    0.45423675781
    1.42031703733    0.44388580979
    1.43031926998    0.43370342945
    1.44032150264    0.42368815649
    1.45032373530    0.41383849518
    1.46032596796    0.40415291812
    1.47032820061    0.39462986919
    1.48033043327    0.38526776639
    1.49033266593    0.37606500535
    1.50033489859    0.36701996212
    1.51033713124    0.35813099557
    1.52033936390    0.34939644987
    1.53034159656    0.34081465681
    1.54034382921    0.33238393794
    1.55034606187    0.32410260658
    1.56034829453    0.31596896978
    1.57035052719    0.30798133005
    1.58035275984    0.30013798704
    1.59035499250    0.29243723914
    1.60035722516    0.28487738488
    1.61035945782    0.27745672437
    1.62036169047    0.27017356052
    1.63036392313    0.26302620025
    1.64036615579    0.25601295560
    1.65036838844    0.24913214479
    1.66037062110    0.24238209312
    1.67037285376    0.23576113395
    1.68037508642    0.22926760944
    1.69037731907    0.22289987138
    1.70037955173    0.21665628186
    1.71038178439    0.21053521399
    1.72038401704    0.20453505240
    1.73038624970    0.19865419390
    1.74038848236    0.19289104793
    1.75039071502    0.18724403704
    1.76039294767    0.18171159733
    1.77039518033    0.17629217880
    1.78039741299    0.17098424575
    1.79039964565    0.16578627707
    1.80040187830    0.16069676651
    1.81040411096    0.15571422298
    1.82040634362    0.15083717073
    1.83040857627    0.14606414956
    1.84041080893    0.14139371501
    1.85041304159    0.13682443851
    1.86041527425    0.13235490748
    1.87041750690    0.12798372544
    1.88041973956    0.12370951215
    1.89042197222    0.11953090361
    1.90042420487    0.11544655213
    1.91042643753    0.11145512639
    1.92042867019    0.10755531144
    1.93043090285    0.10374580870
    1.94043313550    0.10002533596
    1.95043536816    0.09639262734
    1.96043760082    0.09284643331
    1.97043983348    0.08938552058
    1.98044206613    0.08600867208
    1.99044429879    0.08271468692
    2.00044653145    0.07950238025
    2.01044876410    0.07637058324
    2.02045099676    0.07331814300
    2.03045322942    0.07034392242
    2.04045546208    0.06744680012
    2.05045769473    0.06462567033
    2.06045992739    0.06187944280
    2.07046216005    0.05920704264
    2.08046439271    0.05660741021
    2.09046662536    0.05407950102
    2.10046885802    0.05162228558
    2.11047109068    0.04923474926
    2.12047332333    0.04691589215
    2.13047555599    0.04466472896
    2.14047778865    0.04248028882
    2.15048002131    0.04036161517
    2.16048225396    0.03830776561
    2.17048448662    0.03631781175
    2.18048671928    0.03439083904
    2.19048895193    0.03252594665
    2.20049118459    0.03072224729
    2.21049341725    0.02897886707
    2.22049564991    0.02729494535
    2.23049788256    0.02566963456
    2.24050011522    0.02410210008
    2.25050234788    0.02259152005
    2.26050458054    0.02113708523
    2.27050681319    0.01973799886
    2.28050904585    0.01839347645
    2.29051127851    0.01710274570
    2.30051351116    0.01586504627
    2.31051574382    0.01467962968
    2.32051797648    0.01354575911
    2.33052020914    0.01246270930
    2.34052244179    0.01142976635
    2.35052467445    0.01044622756
    2.36052690711    0.00951140133
    2.37052913976    0.00862460696
    2.38053137242    0.00778517454
    2.39053360508    0.00699244475
    2.40053583774    0.00624576876
    2.41053807039    0.00554450806
    2.42054030305    0.00488803430
    2.43054253571    0.00427572918
    2.44054476837    0.00370698428
    2.45054700102    0.00318120093
    2.46054923368    0.00269779005
    2.47055146634    0.00225617205
    2.48055369899    0.00185577664
    2.49055593165    0.00149604273
    2.50055816431    0.00117641828
    2.51056039697    0.00089636016
    2.52056262962    0.00065533403
    2.53056486228    0.00045281420
    2.54056709494    0.00028828352
    2.55056932760    0.00016123318
    2.56057156025    0.00007116211
    2.57057379291    0.00001757881
    2.58057602557    0.00000000000
  1  2  1  0  4.000000  #orbital l, n, z, is_polarized, population
 492   0.0100088191331246   4.9143301943641768
    0.00000000000    4.59876619862
    0.01000881913    4.59781129185
    0.02001763827    4.59494787760
    0.03002645740    4.59017988859
    0.04003527653    4.58351386905
    0.05004409567    4.57495896115
    0.06005291480    4.56452688564
    0.07006173393    4.55223191692
    0.08007055306    4.53809085270
    0.09007937220    4.52212297819
    0.10008819133    4.50435002512
    0.11009701046    4.48479612540
    0.12010582960    4.46348775982
    0.13011464873    4.44045370168
    0.14012346786    4.41572495555
    0.15013228700    4.38933469134
    0.16014110613    4.36131817379
    0.17014992526    4.33171268750
    0.18015874440    4.30055745780
    0.19016756353    4.26789356751
    0.20017638266    4.23376386991
    0.21018520180    4.19821289797
    0.22019402093    4.16128677038
    0.23020284006    4.12303309416
    0.24021165919    4.08350086455
    0.25022047833    4.04274036211
    0.26022929746    4.00080304755
    0.27023811659    3.95774145431
    0.28024693573    3.91360907940
    0.29025575486    3.86846027273
    0.30026457399    3.82235012517
    0.31027339313    3.77533435567
    0.32028221226    3.72746919787
    0.33029103139    3.67881128643
    0.34029985053    3.62941754322
    0.35030866966    3.57934506416
    0.36031748879    3.52865100650
    0.37032630793    3.47739247731
    0.38033512706    3.42562642317
    0.39034394619    3.37340952157
    0.40035276532    3.32079807433
    0.41036158446    3.26784790313
    0.42037040359    3.21461424784
    0.43037922272    3.16115166746
    0.44038804186    3.10751394441
    0.45039686099    3.05375399207
    0.46040568012    2.99992376604
    0.47041449926    2.94607417927
    0.48042331839    2.89225502127
    0.49043213752    2.83851488164
    0.50044095666    2.78490107812
    0.51044977579    2.73145958925
    0.52045859492    2.67823499183
    0.53046741406    2.62527040335
    0.54047623319    2.57260742940
    0.55048505232    2.52028611618
    0.56049387145    2.46834490826
    0.57050269059    2.41682061141
    0.58051150972    2.36574836083